version 3
run vnet-0-20230901-10:35:15-13463
attr configname vnet
attr datetime 20230901-10:35:15
attr datetimef 20230901-103515
attr experiment vnet
attr inifile omnetpp-10.ini
attr iterationvars ""
attr iterationvarsd ""
attr iterationvarsf ""
attr measurement ""
attr network networks.Net
attr processid 13463
attr repetition 0
attr replication #0
attr resultdir results
attr runnumber 0
attr seedset 0
config cmdenv-redirect-output true
config **.appType "\"AppV\""
config network networks.Net
config **.address "int(replace(fullName(), \"rte\", \"\"))"
config **.app.sendIaTime "exponential(47.61 ms)"
config **.app.packageLength "100 bytes"
config **.app.voteLength "5 bytes"
config **.app.batchSize 10
config **.nodesFile "\"networks/nodes-10.txt\""
config **.connectionsFile "\"networks/connections-10.txt\""
config **.app.quorum 7
config **.app.N 10
config **.destAddresses "\"0 1 2 3 4 5 6 7 8 9\""
config **.router "\"\""
config sim-time-limit 1000s
config repeat 1

vector 0 Net.rte4.app TxQueueLen:vector ETV
attr interpolationmode none
attr recordingmode vector
attr title TxQueueLen
vector 1 Net.rte4.app endToEndDelay:vector ETV
attr interpolationmode none
attr recordingmode vector
attr title "end-to-end delay of arrived requests"
attr unit s
vector 2 Net.rte8.app TxQueueLen:vector ETV
attr interpolationmode none
attr recordingmode vector
attr title TxQueueLen
vector 3 Net.rte0.app TxQueueLen:vector ETV
attr interpolationmode none
attr recordingmode vector
attr title TxQueueLen
vector 4 Net.rte3.app TxQueueLen:vector ETV
attr interpolationmode none
attr recordingmode vector
attr title TxQueueLen
vector 5 Net.rte2.app TxQueueLen:vector ETV
attr interpolationmode none
attr recordingmode vector
attr title TxQueueLen
vector 6 Net.rte8.app endToEndDelay:vector ETV
attr interpolationmode none
attr recordingmode vector
attr title "end-to-end delay of arrived requests"
attr unit s
vector 7 Net.rte6.app TxQueueLen:vector ETV
attr interpolationmode none
attr recordingmode vector
attr title TxQueueLen
vector 8 Net.rte5.app TxQueueLen:vector ETV
attr interpolationmode none
attr recordingmode vector
attr title TxQueueLen
vector 9 Net.rte2.app endToEndDelay:vector ETV
attr interpolationmode none
attr recordingmode vector
attr title "end-to-end delay of arrived requests"
attr unit s
vector 10 Net.rte0.app endToEndDelay:vector ETV
attr interpolationmode none
attr recordingmode vector
attr title "end-to-end delay of arrived requests"
attr unit s
vector 11 Net.rte6.app endToEndDelay:vector ETV
attr interpolationmode none
attr recordingmode vector
attr title "end-to-end delay of arrived requests"
attr unit s
vector 12 Net.rte3.app endToEndDelay:vector ETV
attr interpolationmode none
attr recordingmode vector
attr title "end-to-end delay of arrived requests"
attr unit s
vector 13 Net.rte1.app TxQueueLen:vector ETV
attr interpolationmode none
attr recordingmode vector
attr title TxQueueLen
vector 14 Net.rte9.app TxQueueLen:vector ETV
attr interpolationmode none
attr recordingmode vector
attr title TxQueueLen
vector 15 Net.rte5.app endToEndDelay:vector ETV
attr interpolationmode none
attr recordingmode vector
attr title "end-to-end delay of arrived requests"
attr unit s
vector 16 Net.rte7.app TxQueueLen:vector ETV
attr interpolationmode none
attr recordingmode vector
attr title TxQueueLen
vector 17 Net.rte9.app endToEndDelay:vector ETV
attr interpolationmode none
attr recordingmode vector
attr title "end-to-end delay of arrived requests"
attr unit s
vector 18 Net.rte7.app endToEndDelay:vector ETV
attr interpolationmode none
attr recordingmode vector
attr title "end-to-end delay of arrived requests"
attr unit s
vector 19 Net.rte1.app endToEndDelay:vector ETV
attr interpolationmode none
attr recordingmode vector
attr title "end-to-end delay of arrived requests"
attr unit s
0	1950	1.262256528616	10
0	2191	1.31346036786	20
0	2320	1.355662188813	20
0	2753	1.552744805471	20
0	3149	1.823755508376	20
0	3155	1.823755508376	10
0	3437	1.89174241092	10
0	3934	2.036862375775	20
0	4208	2.07927745414	20
0	11996	4.440336480618	50
0	12799	4.651681217549	60
0	13556	4.951618853628	60
0	14357	5.141838460454	70
0	14578	5.201839960492	70
0	15111	5.294559895352	60
0	15335	5.339761791307	60
0	15951	5.534949827967	60
0	17279	5.99685983599	60
0	17691	6.078377431644	60
0	18813	6.349723668613	70
0	19348	6.535858513826	70
0	20081	6.788879636486	80
0	21131	7.034804167369	80
0	21208	7.052603846454	70
0	21787	7.243676155062	70
0	22258	7.376894336852	70
0	22791	7.530413732552	70
0	24042	7.841623571948	80
0	24133	7.861761469559	80
0	24557	7.950010204479	80
0	24929	8.092697380594	80
0	25160	8.168914137348	90
0	25352	8.227900814886	80
0	25424	8.240915937394	80
0	26650	8.556439383196	90
0	26940	8.647781120051	90
0	27003	8.663844893389	90
0	27117	8.687644722478	90
0	28282	9.004720181166	90
0	29987	9.519049430461	100
0	30711	9.797954863368	100
0	32398	10.235884194373	100
0	32487	10.251067730919	100
0	33785	10.655976313906	100
0	33924	10.699962616434	100
0	34091	10.734493834558	100
0	35015	11.005840071527	110
0	35141	11.045703673954	110
0	36554	11.42278063268	110
0	37416	11.616000314508	120
0	37541	11.671986917044	110
0	37868	11.747921995319	110
0	38079	11.814005264634	110
0	38350	11.889108681945	120
0	40047	12.306533135542	120
0	41820	12.823885522667	130
0	41882	12.840030915278	130
0	42820	13.038551436	130
0	43186	13.117823008742	130
0	43476	13.191039690494	130
0	43990	13.367029293106	130
0	44123	13.401146482891	130
0	44382	13.460764050466	140
0	46707	14.100062416064	150
0	47175	14.228984021873	150
0	47516	14.313169283463	150
0	47761	14.389924673647	150
0	48771	14.629860809688	150
0	49921	14.975801926414	150
0	50023	15.015003672365	150
0	51806	15.516613387552	160
0	52408	15.72208816958	160
0	53267	15.978109367242	160
0	54132	16.204900185674	170
0	55495	16.548225159861	170
0	55686	16.610842802438	170
0	56219	16.751113895226	170
0	56685	16.867986625199	160
0	58241	17.361143943106	170
0	58296	17.373062623841	170
0	60797	18.11467833918	180
0	61012	18.186266110887	190
0	61919	18.439956062072	190
0	62167	18.506027576225	190
0	63785	18.908900253876	190
0	63801	18.918284411345	190
0	64063	18.99618481913	180
0	64406	19.053186244166	190
0	65091	19.231975862568	190
0	65252	19.289177346816	190
0	66519	19.620715990122	200
0	67224	19.820923054448	200
0	67329	19.845206044662	200
0	67358	19.851124575393	200
0	68041	20.022210469774	210
0	68569	20.135068302245	200
0	70879	20.820148801001	210
0	71480	20.98721979788	210
0	71951	21.093338787705	220
0	73311	21.4987629413	220
0	73443	21.540248420724	220
0	73881	21.653106253195	230
0	74076	21.71003781412	230
0	74906	21.89624252345	240
0	76504	22.352986356034	230
0	76704	22.440270921288	230
0	77248	22.575192677101	230
0	78022	22.745133553881	240
0	79209	23.118287871712	240
0	80183	23.405080190182	250
0	80616	23.505399089215	250
0	80829	23.534283474476	250
0	82255	23.913823317812	250
0	82304	23.92802573202	240
0	82871	24.093230628051	250
0	85489	24.858331372802	260
0	86147	25.040121066206	260
0	86766	25.163194005395	270
0	86982	25.229325850538	270
0	88565	25.74607118316	270
0	89793	26.07336174856	280
0	90026	26.135218306005	280
0	91096	26.451886769402	270
0	93134	26.98238447413	280
0	93970	27.198107484068	280
0	94022	27.213390249276	280
0	94149	27.243906569898	280
0	94300	27.288310505051	290
0	94433	27.329178292638	290
0	94883	27.423497041667	290
0	96537	27.893262257107	300
0	96795	28.00240997477	290
0	97150	28.077330230545	290
0	98128	28.367404302502	300
0	98693	28.560423925118	300
0	99844	28.875533342575	300
0	100589	29.052354606157	310
0	100890	29.133155860282	310
0	102347	29.598965446372	310
0	102903	29.768309133283	320
0	103040	29.816440528408	310
0	103245	29.867241744228	310
0	104035	30.135463301104	310
0	105873	30.54047342636	320
0	108532	31.294007822434	330
0	108860	31.371211811682	330
0	109103	31.445281195216	330
0	109422	31.530599719239	340
0	111411	32.120367934755	340
0	111672	32.171499404882	330
0	112061	32.250434558159	340
0	112503	32.3585188775	340
0	112806	32.433520752542	340
0	114394	32.912387735251	340
0	114508	32.929048698458	340
0	114595	32.943251112666	340
0	114984	33.08032207124	350
0	117290	33.781069998992	360
0	117361	33.812340371698	350
0	117852	33.945558553488	350
0	118070	34.005478434259	350
0	119610	34.455288913612	350
0	120229	34.611676746167	350
0	120400	34.667431611351	350
0	122230	35.18957485677	360
0	123205	35.433595754424	370
0	123490	35.504382672758	370
0	124169	35.637519235281	370
0	124707	35.760603929626	370
0	125654	36.076127375428	370
0	126449	36.27033428975	380
0	126483	36.282616979956	380
0	126560	36.303719047227	380
0	128227	36.767614307758	380
0	129048	37.025490562827	380
0	129891	37.272560111305	390
0	131816	37.812756773171	390
0	131968	37.856641533442	390
0	131981	37.862441624234	390
0	132579	38.05266123106	400
0	134887	38.697677356468	410
0	135257	38.805397666338	410
0	137032	39.27420732743	410
0	137907	39.500552439377	420
0	137947	39.510799224235	420
0	138088	39.557484000296	410
0	138159	39.57069918201	410
0	138762	39.747621987855	420
0	140561	40.232570739835	420
0	140682	40.271701909954	420
0	140842	40.323435617288	420
0	141018	40.362718982506	420
0	143413	41.06652172624	430
0	143734	41.149254203606	440
0	143841	41.175456917822	430
0	143945	41.205841600297	430
0	144139	41.229740658054	430
0	147602	42.225683939407	450
0	149086	42.689762361468	450
0	149270	42.718293429588	460
0	149607	42.827635616461	460
0	150342	43.074786784206	470
0	151080	43.260892976587	470
0	152003	43.527798109492	470
0	152739	43.737721740353	470
0	152838	43.770521794448	470
0	154792	44.381604603316	470
0	155404	44.567809312646	480
0	155781	44.655826310196	480
0	156103	44.769930702531	480
0	157010	45.039835910438	480
0	159864	45.902712493385	500
0	160103	45.976374881628	490
0	160261	46.016845538552	490
0	160632	46.092780616827	490
0	160746	46.128580745924	490
0	162061	46.464973078593	490
0	162477	46.614875286424	500
0	163419	46.919668054906	500
0	163465	46.923600621422	500
0	163928	47.007885111668	510
0	165725	47.537753369409	500
0	168093	48.223017029695	510
0	168466	48.311902914988	510
0	168695	48.388435183138	510
0	169112	48.510841068341	510
0	169530	48.621643072486	520
0	169823	48.677712006008	520
0	170310	48.792929737786	520
0	170629	48.885932062846	520
0	174482	50.026476134164	530
0	174882	50.145881944365	540
0	175025	50.190682298468	540
0	175538	50.312752882032	540
0	176558	50.606960291424	540
0	176601	50.618830396337	540
0	176675	50.634975788942	540
0	177153	50.815081831319	540
0	179119	51.404850046829	550
0	180168	51.76478918294	540
0	180359	51.781520010264	540
0	181182	51.985009539784	540
0	182200	52.302002667486	550
0	182517	52.380937820763	550
0	183940	52.813030240304	550
0	184598	53.053137782719	560
0	185257	53.265759175392	560
0	185375	53.29355781121	560
0	186693	53.680051915846	560
0	187113	53.782054465912	560
0	187283	53.822910498343	560
0	187762	53.949977046745	570
0	188328	54.122848134416	570
0	188599	54.177781975964	570
0	190317	54.685178583741	590
0	191269	54.960069119152	590
0	191784	55.11160326235	590
0	192430	55.331948224287	580
0	193256	55.56888428532	590
0	193750	55.708020997847	590
0	194606	55.960624487882	600
0	194694	55.989094844798	600
0	195284	56.152113717394	600
0	195881	56.3171178425	600
0	195884	56.317219384763	600
0	196531	56.497040723341	600
0	196721	56.589842277474	590
0	198549	57.106137567994	600
0	199044	57.206925236346	610
0	199166	57.229242185335	610
0	200156	57.498865003044	610
0	200294	57.535663863868	610
0	200804	57.687007100761	610
0	201024	57.730153168382	610
0	201882	57.952077099251	620
0	202405	58.055946461878	610
0	204839	58.659031401371	620
0	204943	58.69917739399	620
0	205080	58.738096749743	620
0	205642	58.861181444094	630
0	206402	59.044287561473	640
0	206447	59.047701664814	640
0	206878	59.184174721798	640
0	208938	59.73420326964	650
0	209451	59.830307211965	640
0	209798	59.913192947254	640
0	210180	60.036928454634	650
0	210756	60.20273054054	650
0	211476	60.411075202469	650
0	211662	60.474006913392	660
0	212029	60.556223820156	660
0	212134	60.583224495172	660
0	214578	61.276160201333	670
0	216597	61.78823982343	670
0	217133	61.929113153419	670
0	217819	62.109047789416	670
0	217920	62.134263271144	670
0	218028	62.158263871158	670
0	218555	62.308369163517	670
0	219011	62.497787916976	670
0	219304	62.571991831222	670
0	222799	63.537283549526	690
0	223654	63.754222152885	690
0	224469	63.984094665592	690
0	224596	64.012825792924	690
0	224689	64.033310747334	700
0	225642	64.344173529931	700
0	226456	64.552323722658	700
0	226557	64.603426539953	700
0	227830	64.987052207734	720
0	228307	65.112322925512	720
0	229634	65.461346448228	720
0	233045	66.399155042104	730
0	233113	66.421471991093	730
0	233633	66.547889169512	730
0	233694	66.568374123922	730
0	234524	66.810365376576	740
0	235043	66.942238481559	740
0	235205	67.009303529923	740
0	236152	67.248176267636	740
0	236416	67.336908895006	740
0	236688	67.405112659248	740
0	239496	68.14641357491	750
0	239673	68.194132384742	750
0	240165	68.325403252524	750
0	240548	68.451276207503	750
0	241029	68.581342830907	750
0	241379	68.65942640023	760
0	242022	68.836532367605	760
0	242659	68.995434800442	750
0	244073	69.373362631403	760
0	245397	69.672236869154	770
0	245603	69.745555093175	770
0	246903	70.057976921712	770
0	247090	70.117462851142	770
0	248746	70.617460553958	780
0	249628	70.869336659017	790
0	251393	71.395212411746	790
0	251772	71.479496901998	790
0	252445	71.690017722734	790
0	253075	71.854424657957	790
0	253983	72.189499854942	790
0	254025	72.20430017074	790
0	254127	72.229617194731	790
0	256004	72.687382110157	810
0	256706	72.913250362696	810
0	258490	73.432545728218	810
0	258748	73.486465458979	800
0	259700	73.83155570347	810
0	259732	73.842341121766	810
0	262312	74.584676071205	820
0	262367	74.610560381458	820
0	263487	74.888097674736	820
0	264190	75.091304814058	820
0	264221	75.099442411667	820
0	264371	75.124506410005	820
0	266883	75.850606179732	820
0	267548	76.129613154908	830
0	268671	76.428605832598	830
0	268888	76.466137125724	830
0	269890	76.822732022605	830
0	270286	76.98041957373	830
0	271551	77.318158426258	830
0	271671	77.362643980678	830
0	272841	77.769439299224	840
0	273585	77.997514863479	830
0	274084	78.112380340948	830
0	274604	78.265584936971	830
0	275757	78.727678106536	840
0	276434	78.849536164013	840
0	277156	79.070202227356	850
0	277372	79.114606162503	850
0	277387	79.120789474043	850
0	278481	79.503682709522	850
0	278721	79.561416566854	840
0	278838	79.57969940707	840
0	279834	79.84070593223	840
0	280109	79.906809124535	850
0	280776	80.06449667566	850
0	281897	80.361573964959	860
0	282439	80.519238453262	860
0	283431	80.809648538565	860
0	284974	81.216525476384	880
0	286342	81.589749658326	870
0	287010	81.844857575751	870
0	287088	81.861741660998	870
0	287348	81.916475443328	880
0	287495	81.936613340945	880
0	289049	82.378687764547	880
0	289965	82.651776208992	890
0	291494	83.063302054856	900
0	292747	83.476898376773	900
0	292790	83.49378246202	890
0	292858	83.503797509526	890
0	293188	83.608517744388	890
0	293354	83.6375860029	890
0	294603	83.972324780426	900
0	294956	84.073811759882	900
0	298271	85.086622228806	910
0	300078	85.582849485826	930
0	300308	85.664367081486	930
0	301233	85.971844413572	920
0	301307	85.977714368475	920
0	302124	86.224865536232	930
0	302356	86.299785792001	930
0	303115	86.554873786436	930
0	303124	86.557975403701	930
0	303824	86.778664529866	940
0	304150	86.86959927143	940
0	304199	86.883737019043	940
0	304646	86.953883761688	930
0	304824	87.000870139218	930
0	305284	87.151807092535	940
0	305965	87.349995204197	940
0	308176	88.000828318067	950
0	308628	88.142429033038	950
0	308884	88.199016429729	950
0	309570	88.398774894991	950
0	309625	88.41370540589	960
0	310588	88.681644572566	960
0	310673	88.702927487784	960
0	313127	89.421930665734	970
0	314110	89.6929522384	970
0	315987	90.21395046623	970
0	316117	90.250683798548	970
0	316729	90.434072306127	980
0	317030	90.535891694655	980
0	317526	90.680492484628	980
0	318936	91.011770357518	980
0	319583	91.177989364334	980
0	320002	91.290847196799	990
0	321409	91.722988192174	990
0	322541	92.051011189876	1000
0	322786	92.128730749726	1000
0	323039	92.192116257229	1000
0	324434	92.592809883508	1010
0	326099	93.073955146245	1010
0	327316	93.421030643238	1010
0	327649	93.528903148199	1010
0	329169	94.00457558671	1020
0	329682	94.101847609452	1020
0	331380	94.606792701278	1030
0	332182	94.853182783897	1030
0	332672	94.97608431671	1040
0	333780	95.312092716918	1050
0	335403	95.798023247953	1050
0	335548	95.859891560554	1040
0	336300	96.015965324757	1050
0	336717	96.16111394245	1060
0	336764	96.173629813066	1060
0	337786	96.425222084881	1060
0	338223	96.587042973447	1060
0	338607	96.705912711084	1060
0	339031	96.796115020352	1060
0	339470	96.924988050327	1070
0	340144	97.14785622787	1060
0	342090	97.688667689014	1060
0	342137	97.697152343416	1060
0	342967	97.936875953364	1070
0	345045	98.48068748951	1080
0	345756	98.696177319038	1080
0	346335	98.840282461393	1090
0	347008	99.002103349959	1090
0	347020	99.006970237524	1090
0	347242	99.075971962568	1080
0	347880	99.220045426763	1080
0	348223	99.326193069436	1080
0	349015	99.548198619572	1080
0	349428	99.631918329426	1080
0	349682	99.689303686925	1080
0	350281	99.851124575491	1090
0	352724	100.537940979994	1100
0	353464	100.72321319781	1100
0	353968	100.838746440986	1100
0	354074	100.849086152783	1100
0	354245	100.904232520424	1100
0	356664	101.509232848302	1110
0	357008	101.606250070864	1110
0	357652	101.747769166556	1120
0	359419	102.220050564536	1120
0	359476	102.233367288519	1120
0	361006	102.596274821484	1130
0	362684	103.052204602495	1130
0	363162	103.178289371848	1130
0	363511	103.267276799404	1130
0	364019	103.393149754377	1130
0	365058	103.682403514425	1140
0	365265	103.72908829048	1140
0	365635	103.859024007074	1140
0	365815	103.904225903029	1140
0	366434	104.051826767998	1140
0	366761	104.116298024936	1130
0	367203	104.239170904907	1130
0	368654	104.708045232606	1140
0	369037	104.840846493492	1140
0	369889	105.074336773036	1150
0	371422	105.544133666618	1160
0	371671	105.599349898364	1160
0	375853	106.714362976564	1190
0	375962	106.766379074096	1190
0	376155	106.820481966389	1180
0	377237	107.182174617644	1190
0	377829	107.318908445044	1190
0	377953	107.34839362446	1190
0	378242	107.405313430223	1190
0	378709	107.500252431949	1190
0	379467	107.732504766961	1200
0	380882	108.149131259762	1200
0	381210	108.22640077751	1200
0	383831	108.974352656205	1200
0	384346	109.10343750056	1210
0	384511	109.132293232971	1210
0	385417	109.427445600764	1210
0	385886	109.546233719124	1220
0	385916	109.553964321442	1220
0	386190	109.661169060708	1220
0	387668	110.087563643435	1220
0	388468	110.332253369616	1230
0	390100	110.732396607307	1220
0	391199	111.059486401786	1230
0	391859	111.296209936732	1230
0	392307	111.427350609407	1230
0	392323	111.430480879516	1230
0	392610	111.521497952074	1230
0	393394	111.722604519459	1240
0	394995	112.155029348072	1250
0	395251	112.216500530008	1250
0	396830	112.634525777772	1240
0	397585	112.810315321168	1250
0	399215	113.264459908893	1250
0	399513	113.362398985621	1260
0	400932	113.711270313244	1260
0	401220	113.784070074092	1260
0	401636	113.882556978552	1270
0	401775	113.914542981072	1270
0	402183	114.026662120901	1270
0	403118	114.269566653796	1260
0	403735	114.439356047188	1260
0	406114	115.055687846547	1270
0	407257	115.359109450078	1280
0	407282	115.363449011877	1280
0	407443	115.41231283931	1280
0	407520	115.42958085702	1290
0	407606	115.448596129532	1290
0	408944	115.805523435485	1290
0	409681	116.074396923212	1280
0	410515	116.261334064842	1290
0	411841	116.630727222533	1290
0	412857	116.931148751062	1290
0	413170	116.995489812899	1300
0	413567	117.086637080558	1300
0	413613	117.10642272386	1300
0	414268	117.257559736393	1310
0	414374	117.290642180686	1310
0	415539	117.599751448141	1300
0	417271	118.016377940942	1310
0	417592	118.082661981182	1310
0	418984	118.44618662701	1320
0	419579	118.65567630654	1320
0	419688	118.687532113959	1320
0	420258	118.81366545914	1330
0	421065	119.009603537491	1330
0	422184	119.35520935258	1340
0	422699	119.528415741888	1330
0	423470	119.701487600486	1330
0	424143	119.861624838025	1340
0	424323	119.902692684824	1340
0	424962	120.074813324691	1340
0	425394	120.199569914905	1350
0	425665	120.290717182564	1350
0	426079	120.419720407646	1350
0	426176	120.44043854246	1350
0	426920	120.610510326056	1340
0	426965	120.620725432772	1340
0	430417	121.52674808334	1360
0	430536	121.556667214087	1360
0	430686	121.590265228978	1360
0	430915	121.646852625675	1360
0	431698	121.892474843368	1370
0	431716	121.894612290967	1370
0	433393	122.377754561374	1370
0	434011	122.501874001211	1360
0	434277	122.54555870227	1370
0	434822	122.686632091463	1370
0	434917	122.714777784082	1370
0	435444	122.86749921898	1370
0	435874	123.008703514995	1370
0	436418	123.163774211866	1370
0	436657	123.219305954998	1370
0	438118	123.599517519438	1380
0	438126	123.601654967037	1370
0	438795	123.824805534778	1370
0	439872	124.103730890683	1380
0	439962	124.130914727231	1380
0	440565	124.286817085066	1380
0	442138	124.73682833535	1390
0	442608	124.86181666293	1390
0	443305	125.023620653822	1400
0	443337	125.034351331136	1400
0	443586	125.113692767983	1390
0	444117	125.2945598955	1390
0	445061	125.552767116589	1390
0	445912	125.768955678257	1390
0	446068	125.798854886012	1390
0	447880	126.311867711336	1410
0	448338	126.430855888912	1410
0	448675	126.535658454768	1410
0	450325	126.985739569157	1430
0	450960	127.184807917611	1420
0	451082	127.220890436906	1420
0	452007	127.463998054319	1420
0	452065	127.468881839564	1420
0	452499	127.572414782726	1420
0	452742	127.709620272012	1430
0	454540	128.19790006502	1430
0	455288	128.399919912642	1440
0	456018	128.681644572622	1440
0	456424	128.822848868637	1440
0	457000	128.944718681276	1440
0	457088	128.973035780263	1440
0	458785	129.526803095749	1450
0	459439	129.698952388458	1450
0	459727	129.794873169247	1450
0	459742	129.79673998181	1450
0	459921	129.86447208416	1450
0	460987	130.208965138776	1450
0	462303	130.555959016496	1450
0	462730	130.668078156325	1450
0	463383	130.85369887398	1450
0	463944	131.032840746691	1450
0	464501	131.246909470155	1450
0	464613	131.273991764444	1450
0	464825	131.31477793276	1450
0	465423	131.433511310142	1460
0	466549	131.721002939722	1460
0	467897	132.187999817518	1460
0	468542	132.360120457385	1470
0	469698	132.721882972749	1470
0	469800	132.755947196099	1470
0	470441	132.966034065504	1470
0	470812	133.063821658856	1480
0	471068	133.125553611202	1480
0	471401	133.208757750454	1480
0	473194	133.760039118502	1490
0	473882	133.935058291112	1480
0	473950	133.953058741118	1480
0	474946	134.236920848697	1490
0	476525	134.775180833897	1500
0	476633	134.823596062266	1500
0	477258	134.991003072497	1500
0	477362	135.023803126592	1500
0	478680	135.44908134456	1510
0	479144	135.547883760412	1510
0	479525	135.64810111718	1500
0	479574	135.657101342186	1500
0	479970	135.747103592248	1500
0	481992	136.39563536325	1510
0	482261	136.45390641098	1510
0	482668	136.529840777534	1510
0	482672	136.531978225133	1510
0	483507	136.743046873595	1520
0	484399	137.007236635293	1530
0	484541	137.081122145582	1520
0	486187	137.445146043312	1520
0	488817	138.151948862044	1540
0	489989	138.447089474663	1550
0	491100	138.821035451565	1550
0	491188	138.861181444192	1550
0	491355	138.899167596722	1550
0	492121	139.074186769332	1550
0	492312	139.136905954168	1560
0	493286	139.419113775273	1550
0	493337	139.428297161809	1550
0	495020	139.896722890444	1560
0	495680	140.105930179776	1570
0	496623	140.387004738442	1570
0	497544	140.65121139782	1570
0	497687	140.670226670326	1570
0	498768	141.000336462793	1580
0	499864	141.308097628123	1580
0	500231	141.40876069139	1570
0	500696	141.558248870888	1570
0	502455	142.085047189506	1580
0	502879	142.214120278691	1580
0	503421	142.365269046388	1580
0	503730	142.46098905625	1590
0	503843	142.497190727199	1590
0	504040	142.578375913781	1590
0	506051	143.12728809687	1590
0	506073	143.132273424374	1580
0	507787	143.64681664279	1590
0	509464	144.093413789729	1600
0	511466	144.641311150318	1600
0	511800	144.702327472856	1600
0	512242	144.819048007726	1610
0	512346	144.84333099794	1610
0	512764	144.969252528747	1610
0	513357	145.163124141432	1610
0	513468	145.221856018776	1600
0	514394	145.472201730731	1610
0	515440	145.731454740755	1610
0	515769	145.824273904283	1610
0	517851	146.40036992392	1620
0	518273	146.511090308786	1620
0	520131	147.116373026868	1630
0	521000	147.321392949492	1640
0	521621	147.459911970176	1640
0	522314	147.69818751802	1630
0	523843	148.083513542227	1640
0	524295	148.20913275985	1640
0	524391	148.242334355797	1650
0	525676	148.670281682733	1660
0	525964	148.752428725392	1660
0	528643	149.525303058269	1670
0	528715	149.534433478382	1670
0	530091	149.916457826118	1680
0	530193	149.937973921728	1670
0	531996	150.453471251458	1680
0	532524	150.603393382275	1680
0	533433	150.867199211516	1680
0	534324	151.08227212014	1680
0	534438	151.101588994115	1690
0	536416	151.753019297866	1690
0	536502	151.766489279778	1690
0	536625	151.794504777296	1690
0	539834	152.663381510233	1700
0	540720	152.904450908715	1700
0	542682	153.464531730842	1710
0	542882	153.497332496652	1720
0	543161	153.591267313224	1720
0	543542	153.708552628496	1720
0	544501	154.005661595937	1730
0	545212	154.215565303812	1730
0	547744	154.897097899834	1740
0	549041	155.22930826425	1740
0	549648	155.369379297826	1750
0	551233	155.823707047077	1750
0	551345	155.853606254838	1750
0	551659	155.939593607392	1760
0	551817	155.981464462311	1760
0	552255	156.081329564784	1760
0	552381	156.102530860717	1760
0	554135	156.612726772571	1760
0	555055	156.891550586211	1760
0	557153	157.48564705586	1770
0	557445	157.572649230914	1770
0	558010	157.727438249302	1780
0	560065	158.272182276948	1780
0	560469	158.370770723673	1780
0	560568	158.402524988827	1780
0	561333	158.679394516412	1780
0	562453	159.004200577406	1780
0	562949	159.126606462609	1780
0	563023	159.150688681902	1780
0	563407	159.24247612525	1780
0	566101	160.008811674699	1790
0	567997	160.599724907808	1790
0	568064	160.623725507824	1790
0	568473	160.700582440265	1800
0	568494	160.706712785376	1800
0	568820	160.764647413635	1800
0	569402	160.91445039281	1790
0	570462	161.302258028844	1790
0	570992	161.429600665721	1790
0	572431	161.78053957684	1810
0	574492	162.363870551173	1810
0	574545	162.378769383924	1810
0	577131	163.064771736852	1830
0	577507	163.119706290109	1830
0	578509	163.373779462048	1830
0	578784	163.4525138444	1820
0	579177	163.538583527942	1830
0	579730	163.73480328477	1830
0	579923	163.787659617197	1830
0	580399	163.900322980472	1830
0	580688	163.956808834912	1830
0	582181	164.327603253436	1840
0	583356	164.661928002611	1840
0	585670	165.2075577205	1850
0	585696	165.216557945506	1840
0	585991	165.312842735758	1840
0	586494	165.450947728105	1850
0	586895	165.537766741623	1850
0	587038	165.588849635934	1850
0	587071	165.592365281532	1850
0	588519	165.965714068559	1860
0	589682	166.290867186372	1860
0	590332	166.440870936468	1870
0	590968	166.631860914088	1860
0	592033	166.928668280066	1860
0	592477	167.049804542569	1860
0	593346	167.290407732596	1870
0	594627	167.660686580524	1870
0	595066	167.814622897134	1870
0	595835	168.021910462458	1880
0	596995	168.383774520073	1880
0	597638	168.569709306094	1880
0	598184	168.772030755185	1880
0	598652	168.86244703358	1880
0	598897	168.929918365526	1890
0	599052	168.958035405303	1890
0	600196	169.26365912304	1890
0	600665	169.365944063296	1890
0	602265	169.833955763594	1900
0	603691	170.274966788866	1910
0	603811	170.310886069611	1910
0	604004	170.384954741436	1900
0	604531	170.530074706287	1900
0	605142	170.715695423948	1900
0	605814	170.858836396623	1900
0	606496	171.036904220065	1910
0	607401	171.284777182796	1910
0	607872	171.403510560172	1910
0	608017	171.462996489614	1910
0	608930	171.707857622155	1920
0	609321	171.825923945559	1910
0	610432	172.132528785628	1910
0	611554	172.467739225046	1920
0	612099	172.560009117796	1930
0	613105	172.876031815496	1930
0	613318	172.921548511122	1930
0	614083	173.125139582913	1940
0	614587	173.278041865752	1940
0	614873	173.34902884329	1940
0	615440	173.502765100696	1940
0	615510	173.520966321621	1940
0	615720	173.579834559232	1940
0	618163	174.248921148747	1950
0	618512	174.37306924144	1950
0	618753	174.44807111648	1950
0	618897	174.496587887108	1950
0	620214	174.820181958975	1960
0	621172	175.100942449281	1960
0	621422	175.154873935218	1950
0	621790	175.29409226701	1950
0	622973	175.591615262796	1960
0	623897	175.879025273097	1960
0	623941	175.889962174775	1960
0	624330	175.980827052248	1960
0	626343	176.515224335037	1970
0	626467	176.550108870294	1970
0	627168	176.78691473624	1980
0	629379	177.454064649083	1980
0	629768	177.54986627823	1980
0	630174	177.652151218486	1980
0	631378	178.006675639308	1980
0	631553	178.059146596238	1980
0	631719	178.108162618776	1980
0	632293	178.235950962146	1990
0	632814	178.384271061209	1990
0	632923	178.423088874691	1990
0	633087	178.461889078802	1990
0	634856	178.97116939681	2000
0	635175	179.085042051775	2000
0	635335	179.137188344422	2000
0	635901	179.284192019508	2000
0	635989	179.299293936783	2000
0	637020	179.578714940292	2010
0	639075	180.175132675789	2020
0	640409	180.5477391659	2030
0	640592	180.586224570328	2020
0	640864	180.663081502763	2020
0	641083	180.72621327291	2030
0	643578	181.380029564114	2030
0	644711	181.69925239602	2040
0	646251	182.14298110611	2050
0	647501	182.48125714901	2060
0	648359	182.656194702343	2060
0	648537	182.680378463901	2060
0	649152	182.91179826738	2050
0	649718	183.075141804273	2060
0	650178	183.208290121964	2060
0	650564	183.313292747038	2060
0	652399	183.861091590668	2070
0	653142	184.060311422498	2070
0	654959	184.564041632626	2080
0	655471	184.767184105333	2080
0	656609	185.038437415377	2080
0	657122	185.197258228935	2080
0	657860	185.41606293316	2080
0	658019	185.496202330789	2080
0	658709	185.679337101012	2080
0	659160	185.767455640833	2080
0	659921	186.033145892026	2080
0	660894	186.334368273928	2090